/*--------------------------------*- C++ -*----------------------------------*\
| =========                 |                                                 |
| \\      /  F ield         | OpenFOAM: The Open Source CFD Toolbox           |
|  \\    /   O peration     | Version:  5.x                                   |
|   \\  /    A nd           | Web:      www.OpenFOAM.org                      |
|    \\/     M anipulation  |                                                 |
\*---------------------------------------------------------------------------*/
FoamFile
{
    version     2.0;
    format      ascii;
    class       volScalarField;
    location    "0";
    object      yPlus;
}
// * * * * * * * * * * * * * * * * * * * * * * * * * * * * * * * * * * * * * //

dimensions      [0 0 0 0 0 0 0];

internalField   uniform 0;

boundaryField
{
    back
    {
        type            empty;
    }
    front
    {
        type            empty;
    }
    exit
    {
        type            calculated;
        value           uniform 0;
    }
    bottom
    {
        type            calculated;
        value           uniform 0;
    }
    inlet
    {
        type            calculated;
        value           uniform 0;
    }
    top
    {
        type            calculated;
        value           uniform 0;
    }
    aerofoil
    {
        type            calculated;
        value           nonuniform List<scalar> 
413
(
10.9141
10.9137
10.9132
10.9103
10.9126
10.9142
10.9093
10.9065
10.9178
10.9171
10.9156
10.9151
10.9145
10.9131
10.9161
10.9157
10.9148
10.9149
10.914
10.9102
10.9153
10.917
10.9121
10.9124
10.9175
10.9178
10.909
10.9144
10.9177
10.9203
10.9165
10.9137
10.9129
10.914
10.9133
10.9158
10.9199
10.9136
10.907
10.9126
10.9056
10.8983
10.9041
10.9096
10.9055
10.9015
10.9071
10.9042
10.8992
10.9032
10.9065
10.9093
10.9143
10.9172
10.912
10.9082
10.9079
10.9137
10.9132
10.9136
10.9143
10.9104
10.9137
10.9133
10.9064
10.91
10.9195
10.9158
10.9121
10.9093
10.912
10.912
10.9121
10.9121
10.9103
10.9154
10.9103
10.9081
10.9136
10.9141
10.9136
10.913
10.9134
10.9142
10.9142
10.9133
10.9129
10.9136
10.914
10.914
10.914
10.9141
10.9142
10.9142
10.9143
10.9143
10.9087
10.9087
10.9158
10.9174
10.9121
10.9204
10.9146
10.9069
10.9069
10.915
10.9282
10.9201
10.9204
10.9232
10.9178
10.9065
10.912
10.9173
10.9118
10.9092
10.9175
10.9175
10.9121
10.9121
10.9121
10.912
10.9158
10.914
10.9142
10.9197
10.9189
10.9132
10.9088
10.9088
10.9143
10.9197
10.9143
10.9088
10.9088
10.9143
10.9197
10.9142
10.9087
10.9087
10.9137
10.9185
10.9133
10.9136
10.9186
10.9132
10.9078
10.9077
10.9076
10.9131
10.9132
10.9132
10.9132
10.9078
10.9078
10.9132
10.9191
10.9133
10.9137
10.9134
10.9075
10.9074
10.9137
10.9198
10.9198
10.9198
10.9144
10.9089
10.9089
10.9143
10.9198
10.9144
10.909
10.9144
10.9144
10.909
10.9158
10.9155
10.9089
10.9089
10.9034
10.9034
10.916
10.923
10.9156
10.9105
10.9123
10.9123
10.9123
10.9123
10.9123
10.9123
10.9123
10.9123
10.9123
10.9123
10.9123
10.9123
10.9123
10.9154
10.9102
10.9092
10.9156
10.9195
10.9197
10.9142
10.91
10.9104
10.9046
10.9047
10.9087
10.9137
10.9132
10.9137
10.9143
10.9181
10.92
10.9068
10.915
10.9093
10.915
10.9199
10.9123
10.9123
10.9123
10.9123
10.9149
10.9124
10.9207
10.9306
10.92
10.9089
10.9187
10.9342
10.9205
10.9066
10.9023
10.9076
10.9121
10.9134
10.9088
10.9359
10.9267
10.9174
10.907
10.9133
10.9115
10.9106
10.9217
10.9242
10.9158
10.9154
10.9163
10.9071
10.9071
10.9125
10.9179
10.915
10.9122
10.9068
10.9014
10.9013
10.9093
10.9177
10.9177
10.9231
10.9231
10.9096
10.9013
10.9067
10.9201
10.915
10.9014
10.9146
10.928
10.9203
10.9123
10.9123
10.9123
10.9051
10.9102
10.9177
10.9123
10.9123
10.9177
10.9231
10.9231
10.9177
10.9177
10.923
10.923
10.916
10.9156
10.9228
10.916
10.9143
10.9198
10.9198
10.9198
10.9198
10.9143
10.909
10.909
10.9144
10.9198
10.9198
10.9198
10.9144
10.9144
10.9144
10.9089
10.9143
10.9197
10.9137
10.9075
10.9076
10.9077
10.9187
10.9188
10.9132
10.9132
10.9132
10.9132
10.9078
10.9078
10.9132
10.9132
10.9078
10.9132
10.9132
10.9132
10.9186
10.9186
10.9185
10.9136
10.9143
10.9157
10.9154
10.9195
10.9141
10.9088
10.9088
10.9143
10.9197
10.9143
10.9143
10.9197
10.9142
10.9141
10.9158
10.9119
10.912
10.9121
10.9121
10.9092
10.9118
10.9121
10.9066
10.912
10.9175
10.9121
10.9066
10.9121
10.9121
10.912
10.9158
10.9154
10.9173
10.9158
10.9141
10.9142
10.9142
10.9088
10.9088
10.9143
10.9142
10.914
10.9136
10.9131
10.9131
10.913
10.9129
10.9132
10.9134
10.9129
10.9135
10.9142
10.9103
10.9065
10.9121
10.9145
10.9087
10.9121
10.9147
10.9096
10.9125
10.911
10.9149
10.9095
10.9091
10.9111
10.9114
10.9177
10.9201
10.9158
10.9097
10.905
10.9092
10.9114
10.9083
10.9111
10.9144
10.914
)
;
    }
}


// ************************************************************************* //
